4
Lattice="10.0 0.0 0.0 0.0 10.0 0.0 0.0 0.0 10.0" Properties=species:S:1:pos:R:3:masses:R:1:momenta:R:3:forces:R:3 from_which_r=0 energy=-133.17335996619303 stress="-0.0013838642000584722 0.05972898485802605 -0.0021355332281408727 0.05972898485802605 -0.18035420967151902 -0.02309031810391414 -0.0021355332281408727 -0.02309031810391414 0.0013684176409613786" pbc="F F F"
Ar      -0.69343597       1.28645657       0.27841180     100.00000000     -42.60629141     -56.14433389      39.42162651      -8.07540368     146.67249633      -0.27841180
Ar      -1.29965466      -2.86719274       1.04644365     100.00000000      10.48053569       3.60920780     -38.29271950       1.29965466       2.86719274      -1.04644365
Ar       1.07831126      -0.33584612      -0.44256095     100.00000000      -8.64805311     -24.87699783      11.85345892      -1.07831126       0.33584612       0.44256095
Ar      -1.16792714      -0.54190108       2.27054041     100.00000000       5.32930597     -18.67365381      15.24294201       1.16792714      -0.00000000      -0.00000000
